##File Type: Far Field
##File Format: 8
##Source: PyramidalCustomHornV0_SingleFreq_StableVersion
##Date: 2025-10-26 13:15:09  
** File exported by Altair Feko - FEKO Version 2025-4940 from 2025-01-22 [Release/2025.0.0 @57f8115f2f7d]


#Configuration Name: StandardConfiguration1
#Request Name: FarField1
#Frequency:   2.25000000E+011
#Coordinate System: Spherical
#No. of Theta Samples: 37
#No. of Phi Samples: 73
#Result Type: Directivity
#Efficiency:   1.00000000E+000
#No. of Header Lines: 1
#       "Theta"             "Phi"           "Re(Etheta)"       "Im(Etheta)"        "Re(Ephi)"         "Im(Ephi)"   "Directivity(Theta)" "Directivity(Phi)" "Directivity(Total)"
    0.00000000E+000    0.00000000E+000    5.72567720E-003   -5.87805206E-003    2.19788138E+001   -1.19572298E+001   -5.63963233E+001    1.32873218E+001    1.32873223E+001
    5.00000000E+000    0.00000000E+000    7.09785265E-003   -7.38272276E-003    2.15776793E+001   -1.12885776E+001   -5.44716271E+001    1.30520297E+001    1.30520305E+001
    1.00000000E+001    0.00000000E+000    8.48494013E-003   -7.42537342E-003    2.04089996E+001   -9.41642248E+000   -5.36362305E+001    1.23558774E+001    1.23558785E+001
    1.50000000E+001    0.00000000E+000    9.44474273E-003   -6.04864485E-003    1.85659470E+001   -6.72097786E+000   -5.36822880E+001    1.12304289E+001    1.12304303E+001
    2.00000000E+001    0.00000000E+000    9.53202400E-003   -3.74924605E-003    1.62009101E+001   -3.70638891E+000   -5.44702932E+001    9.73361983E+000    9.73362148E+000
    2.50000000E+001    0.00000000E+000    8.48372627E-003   -1.24808311E-003    1.35140401E+001   -8.61853310E-001   -5.60140002E+001    7.95460793E+000    7.95460968E+000
    3.00000000E+001    0.00000000E+000    6.32737898E-003    7.95930443E-004    1.07292062E+001    1.45065944E+000   -5.85860645E+001    6.01130354E+000    6.01130505E+000
    3.50000000E+001    0.00000000E+000    3.36747833E-003    1.99520705E-003    8.06091213E+000    3.05030897E+000   -6.28259204E+001    4.03015222E+000    4.03015312E+000
    4.00000000E+001    0.00000000E+000    7.14400914E-005    2.29453769E-003    5.68175607E+000    3.92958299E+000   -6.74606121E+001    2.10864210E+000    2.10864258E+000
    4.50000000E+001    0.00000000E+000   -3.07985769E-003    1.89744984E-003    3.70070710E+000    4.20426448E+000   -6.35107081E+001    2.86569754E-001    2.86571565E-001
    5.00000000E+001    0.00000000E+000   -5.71201097E-003    1.12725885E-003    2.15776622E+000    4.04914554E+000   -5.93770112E+001   -1.44588634E+000   -1.44587934E+000
    5.50000000E+001    0.00000000E+000   -7.61397046E-003    2.97350438E-004    1.03388581E+000    3.64257122E+000   -5.70398816E+001   -3.11406689E+000   -3.11404930E+000
    6.00000000E+001    0.00000000E+000   -8.73419179E-003   -3.65906170E-004    2.70147464E-001    3.13141762E+000   -5.58466540E+001   -4.73170138E+000   -4.73166779E+000
    6.50000000E+001    0.00000000E+000   -9.13948377E-003   -7.42379479E-004   -2.11068408E-001    2.61721030E+000   -5.54317302E+001   -6.29379723E+000   -6.29374427E+000
    7.00000000E+001    0.00000000E+000   -8.96301598E-003   -7.98517591E-004   -4.88457784E-001    2.15768622E+000   -5.55953063E+001   -7.78190608E+000   -7.78183422E+000
    7.50000000E+001    0.00000000E+000   -8.35978425E-003   -5.53590171E-004   -6.30314211E-001    1.77647106E+000   -5.62158197E+001   -9.17259410E+000   -9.17250831E+000
    8.00000000E+001    0.00000000E+000   -7.47693710E-003   -5.02694073E-005   -6.89234418E-001    1.47491916E+000   -5.72040531E+001   -1.04455596E+001   -1.04454680E+001
    8.50000000E+001    0.00000000E+000   -6.43828264E-003    6.62017239E-004   -7.01562955E-001    1.24253902E+000   -5.84576463E+001   -1.15907461E+001   -1.15906568E+001
    9.00000000E+001    0.00000000E+000   -5.33867318E-003    1.53035069E-003   -6.89670752E-001    1.06452785E+000   -5.97871008E+001   -1.26135271E+001   -1.26134438E+001
    9.50000000E+001    0.00000000E+000   -4.24339693E-003    2.49152218E-003   -6.65347364E-001    9.26322567E-001   -6.08380406E+001   -1.35367502E+001   -1.35366693E+001
    1.00000000E+002    0.00000000E+000   -3.18838246E-003    3.46045460E-003   -6.33057813E-001    8.15796091E-001   -6.12268441E+001   -1.43999891E+001   -1.43998989E+001
    1.05000000E+002    0.00000000E+000   -2.17921717E-003    4.32143176E-003   -5.92358768E-001    7.23978812E-001   -6.09821579E+001   -1.52584735E+001   -1.52583573E+001
    1.10000000E+002    0.00000000E+000   -1.19168840E-003    4.93136992E-003   -5.39285525E-001    6.45119149E-001   -6.05728865E+001   -1.61844832E+001   -1.61843251E+001
    1.15000000E+002    0.00000000E+000   -1.81433130E-004    5.14173026E-003   -4.66957198E-001    5.76604153E-001   -6.04511340E+001   -1.72709821E+001   -1.72707733E+001
    1.20000000E+002    0.00000000E+000    8.90489139E-004    4.83781475E-003   -3.65951110E-001    5.18828883E-001   -6.08410329E+001   -1.86245569E+001   -1.86242962E+001
    1.25000000E+002    0.00000000E+000    2.01877879E-003    3.98544549E-003   -2.25108238E-001    4.74679476E-001   -6.16772832E+001   -2.02697225E+001   -2.02694084E+001
    1.30000000E+002    0.00000000E+000    3.11776675E-003    2.67032794E-003   -3.32921947E-002    4.48103709E-001   -6.24124360E+001   -2.16272467E+001   -2.16268842E+001
    1.35000000E+002    0.00000000E+000    4.01117392E-003    1.11463331E-003    2.17783037E-001    4.41516008E-001   -6.22902563E+001   -2.08340099E+001   -2.08336994E+001
    1.40000000E+002    0.00000000E+000    4.46598383E-003   -3.44368212E-004    5.30138429E-001    4.52584294E-001   -6.16546351E+001   -1.78134400E+001   -1.78132607E+001
    1.45000000E+002    0.00000000E+000    4.27225138E-003   -1.32544305E-003    8.96580986E-001    4.71959437E-001   -6.16664851E+001   -1.45646979E+001   -1.45646133E+001
    1.50000000E+002    0.00000000E+000    3.34782300E-003   -1.52190304E-003    1.29949993E+000    4.84000104E-001   -6.33676378E+001   -1.18390301E+001   -1.18389996E+001
    1.55000000E+002    0.00000000E+000    1.82496380E-003   -8.36858386E-004    1.71230368E+000    4.71713098E-001   -6.86247847E+001   -9.68942258E+000   -9.68941703E+000
    1.60000000E+002    0.00000000E+000    6.66515696E-005    5.25009912E-004    2.10341184E+000    4.24817023E-001   -8.02059365E+001   -8.04660599E+000   -8.04660572E+000
    1.65000000E+002    0.00000000E+000   -1.42187639E-003    2.07482293E-003    2.44156218E+000    3.47129201E-001   -6.66670046E+001   -6.83845648E+000   -6.83845196E+000
    1.70000000E+002    0.00000000E+000   -2.17225174E-003    3.19385334E-003    2.70055409E+000    2.58406596E-001   -6.29412171E+001   -6.01008369E+000   -6.01007488E+000
    1.75000000E+002    0.00000000E+000   -1.95050278E-003    3.38036385E-003    2.86193151E+000    1.87902944E-001   -6.28513483E+001   -5.52685829E+000   -5.52685025E+000
    1.80000000E+002    0.00000000E+000   -8.72516049E-004    2.47830781E-003    2.91536871E+000    1.61664952E-001   -6.62881604E+001   -5.37152015E+000   -5.37151663E+000
    0.00000000E+000    5.00000000E+000    1.92128373E+000   -1.04799693E+000    2.18946787E+001   -1.19112166E+001   -7.87570546E+000    1.32539683E+001    1.32873223E+001
    5.00000000E+000    5.00000000E+000    1.90096112E+000   -9.88542421E-001    2.14933390E+001   -1.12449353E+001   -8.05977468E+000    1.30180927E+001    1.30518454E+001
    1.00000000E+001    5.00000000E+000    1.83512883E+000   -8.16352598E-001    2.03239842E+001   -9.38040363E+000   -8.62122572E+000    1.23201414E+001    1.23549675E+001
    1.50000000E+001    5.00000000E+000    1.71837833E+000   -5.63650733E-001    1.84801371E+001   -6.69747614E+000   -9.53254757E+000    1.11913286E+001    1.12279357E+001
    2.00000000E+001    5.00000000E+000    1.54846623E+000   -2.74841104E-001    1.61151996E+001   -3.69948214E+000   -1.07459818E+001    9.68903599E+000    9.72814937E+000
    2.50000000E+001    5.00000000E+000    1.33166907E+000    4.78236052E-003    1.34310239E+001   -8.74274036E-001   -1.21907417E+001    7.90182146E+000    7.94412833E+000
    3.00000000E+001    5.00000000E+000    1.08419620E+000    2.39115252E-001    1.06533080E+001    1.41799927E+000   -1.37702997E+001    5.94723476E+000    5.99333718E+000
    3.50000000E+001    5.00000000E+000    8.28869828E-001    4.07232403E-001    7.99762295E+000    2.99856229E+000   -1.53699291E+001    3.95172836E+000    4.00220521E+000
    4.00000000E+001    5.00000000E+000    5.89023554E-001    5.04276290E-001    5.63621618E+000    3.86183442E+000   -1.68882213E+001    2.01264945E+000    2.06822903E+000
    4.50000000E+001    5.00000000E+000    3.82708607E-001    5.38149733E-001    3.67627409E+000    4.12499459E+000   -1.82831518E+001    1.68625398E-001    2.30217263E-001
    5.00000000E+001    5.00000000E+000    2.19524365E-001    5.24074689E-001    2.15519879E+000    3.96342285E+000   -1.95887803E+001   -1.59231107E+000   -1.52396468E+000
    5.50000000E+001    5.00000000E+000    1.00653439E-001    4.79179782E-001    1.05140416E+000    3.55520426E+000   -2.08812396E+001   -3.29729924E+000   -3.22220097E+000
    6.00000000E+001    5.00000000E+000    2.11938011E-002    4.18580522E-001    3.04201092E-001    3.04629464E+000   -2.22320241E+001   -4.96019294E+000   -4.87955065E+000
    6.50000000E+001    5.00000000E+000   -2.67059530E-002    3.53445499E-001   -1.64737944E-001    2.53695736E+000   -2.36875509E+001   -6.57418671E+000   -6.49057624E+000
    7.00000000E+001    5.00000000E+000   -5.11548745E-002    2.90760254E-001   -4.33862806E-001    2.08364817E+000   -2.52756341E+001   -8.11790813E+000   -8.03513933E+000
    7.50000000E+001    5.00000000E+000   -5.88854092E-002    2.34117410E-001   -5.70611975E-001    1.70892594E+000   -2.70236438E+001   -9.56520414E+000   -9.48792353E+000
    8.00000000E+001    5.00000000E+000   -5.46989599E-002    1.84847439E-001   -6.26509449E-001    1.41340267E+000   -2.89779024E+001   -1.08943430E+001   -1.08273431E+001
    8.50000000E+001    5.00000000E+000   -4.16732877E-002    1.43008824E-001   -6.36922279E-001    1.18617360E+000   -3.12175058E+001   -1.20955178E+001   -1.20426805E+001
    9.00000000E+001    5.00000000E+000   -2.17335095E-002    1.08022012E-001   -6.23533589E-001    1.01229333E+000   -3.38361434E+001   -1.31756677E+001   -1.31385246E+001
    9.50000000E+001    5.00000000E+000    3.72317549E-003    7.89533380E-002   -5.97828262E-001    8.77247822E-001   -3.67216671E+001   -1.41596298E+001   -1.41356205E+001
    1.00000000E+002    5.00000000E+000    3.33069593E-002    5.45874600E-002   -5.64377315E-001    7.69078806E-001   -3.85623996E+001   -1.50882911E+001   -1.50688196E+001
    1.05000000E+002    5.00000000E+000    6.52409984E-002    3.34659189E-002   -5.23237610E-001    6.79052358E-001   -3.73738441E+001   -1.60165023E+001   -1.59848456E+001
    1.10000000E+002    5.00000000E+000    9.70447611E-002    1.40313589E-002   -4.71273097E-001    6.01685658E-001   -3.48494277E+001   -1.70136737E+001   -1.69427716E+001
    1.15000000E+002    5.00000000E+000    1.25268783E-001   -5.07366457E-003   -4.02616444E-001    5.34647650E-001   -3.27147483E+001   -1.81664469E+001   -1.80166703E+001
    1.20000000E+002    5.00000000E+000    1.45365272E-001   -2.46138555E-002   -3.08792446E-001    4.78615849E-001   -3.13067470E+001   -1.95675687E+001   -1.92859199E+001
    1.25000000E+002    5.00000000E+000    1.51924091E-001   -4.44208537E-002   -1.79170574E-001    4.36746822E-001   -3.06899287E+001   -2.11985999E+001   -2.07358882E+001
    1.30000000E+002    5.00000000E+000    1.39565083E-001   -6.32746089E-002   -2.34621934E-003    4.13224233E-001   -3.09713567E+001   -2.23548683E+001   -2.17952957E+001
    1.35000000E+002    5.00000000E+000    1.04612006E-001   -7.91183029E-002    2.31277645E-001    4.10619600E-001   -3.23225867E+001   -2.12132813E+001   -2.08892755E+001
    1.40000000E+002    5.00000000E+000    4.72183778E-002   -8.96004878E-002    5.26004369E-001    4.26608296E-001   -3.45681721E+001   -1.80636710E+001   -1.79676155E+001
    1.45000000E+002    5.00000000E+000   -2.69778776E-002   -9.28075489E-002    8.77401101E-001    4.51619618E-001   -3.49747684E+001   -1.47940576E+001   -1.47525967E+001
    1.50000000E+002    5.00000000E+000   -1.06923132E-001   -8.79617166E-002    1.27027099E+000    4.69524639E-001   -3.18525437E+001   -1.20446317E+001   -1.19994739E+001
    1.55000000E+002    5.00000000E+000   -1.78784110E-001   -7.58516416E-002    1.67924690E+000    4.62647453E-001   -2.89133261E+001   -9.85869301E+000   -9.80503490E+000
    1.60000000E+002    5.00000000E+000   -2.30711141E-001   -5.88383298E-002    2.07231619E+000    4.20034232E-001   -2.71436916E+001   -8.17475190E+000   -8.12003123E+000
    1.65000000E+002    5.00000000E+000   -2.57686958E-001   -4.04112585E-002    2.41627835E+000    3.45111952E-001   -2.63513593E+001   -6.92808104E+000   -6.87876498E+000
    1.70000000E+002    5.00000000E+000   -2.63648711E-001   -2.44113689E-002    2.68217903E+000    2.57709784E-001   -2.62211375E+001   -6.06905945E+000   -6.02732563E+000
    1.75000000E+002    5.00000000E+000   -2.59091371E-001   -1.41420041E-002    2.84888397E+000    1.87555980E-001   -2.63967452E+001   -5.56644606E+000   -5.53072150E+000
    1.80000000E+002    5.00000000E+000   -2.54960321E-001   -1.16211519E-002    2.90419880E+000    1.61265767E-001   -2.65402587E+001   -5.40482662E+000   -5.37151663E+000
    0.00000000E+000    1.00000000E+001    3.82221965E+000   -2.08213991E+000    2.16439119E+001   -1.17745519E+001   -1.90385359E+000    1.31538712E+001    1.32873223E+001
    5.00000000E+000    1.00000000E+001    3.77947832E+000   -1.96216192E+000    2.12421194E+001   -1.11157341E+001   -2.09365953E+000    1.29163468E+001    1.30512496E+001
    1.00000000E+001    1.00000000E+001    3.64436106E+000   -1.61923322E+000    2.00713406E+001   -9.27401067E+000   -2.66385588E+000    1.22131743E+001    1.23522051E+001
    1.50000000E+001    1.00000000E+001    3.40697163E+000   -1.11796924E+000    1.82259765E+001   -6.62794375E+000   -3.58722249E+000    1.10744925E+001    1.12204725E+001
    2.00000000E+001    1.00000000E+001    3.06419999E+000   -5.47028155E-001    1.58621224E+001   -3.67830293E+000   -4.81613100E+000    9.55597682E+000    9.71184477E+000
    2.50000000E+001    1.00000000E+001    2.63011421E+000    3.40971070E-003    1.31862365E+001   -9.08946063E-001   -6.27922449E+000    7.74428004E+000    7.91292537E+000
    3.00000000E+001    1.00000000E+001    2.13824044E+000    4.61842498E-001    1.04290107E+001    1.32522070E+000   -7.87956811E+000    5.75570341E+000    5.93978924E+000
    3.50000000E+001    1.00000000E+001    1.63441638E+000    7.87486430E-001    7.80896433E+000    2.85123566E+000   -9.50484901E+000    3.71665159E+000    3.91871692E+000
    4.00000000E+001    1.00000000E+001    1.16443449E+000    9.71961034E-001    5.49743527E+000    3.66884554E+000   -1.10602827E+001    1.72432328E+000    1.94723377E+000
    4.50000000E+001    1.00000000E+001    7.62757254E-001    1.03237789E+000    3.59678359E+000    3.89898644E+000   -1.25101989E+001   -1.85645475E-001    6.14781119E-002
    5.00000000E+001    1.00000000E+001    4.46761618E-001    1.00008531E+000    2.13732667E+000    3.71853451E+000   -1.38877564E+001   -2.03156922E+000   -1.75717580E+000
    5.50000000E+001    1.00000000E+001    2.17364783E-001    9.09595104E-001    1.09051320E+000    3.30476168E+000   -1.52605761E+001   -3.84704267E+000   -3.54421092E+000
    6.00000000E+001    1.00000000E+001    6.39853290E-002    7.90737259E-001    3.90737386E-001    2.80105294E+000   -1.66897358E+001   -5.64859867E+000   -5.31965641E+000
    6.50000000E+001    1.00000000E+001   -2.91952197E-002    6.65000681E-001   -4.23782720E-002    2.30421866E+000   -1.82139195E+001   -7.42678140E+000   -7.07880059E+000
    7.00000000E+001    1.00000000E+001   -7.80611393E-002    5.45359051E-001   -2.86741669E-001    1.86724181E+000   -1.98569934E+001   -9.15348632E+000   -8.79900842E+000
    7.50000000E+001    1.00000000E+001   -9.55604737E-002    4.38111384E-001   -4.07577467E-001    1.50979840E+000   -2.16451780E+001   -1.07948509E+001   -1.04517030E+001
    8.00000000E+001    1.00000000E+001   -9.08059695E-002    3.45296659E-001   -4.53577084E-001    1.23048763E+000   -2.36244565E+001   -1.23238638E+001   -1.20133321E+001
    8.50000000E+001    1.00000000E+001   -6.95975009E-002    2.66715352E-001   -4.57504731E-001    1.01726798E+000   -2.58716801E+001   -1.37300149E+001   -1.34725714E+001
    9.00000000E+001    1.00000000E+001   -3.55730965E-002    2.01160024E-001   -4.39203720E-001    8.54780981E-001   -2.84741568E+001   -1.50241178E+001   -1.48321853E+001
    9.50000000E+001    1.00000000E+001    8.60619836E-003    1.46907613E-001   -4.09344328E-001    7.28621724E-001   -3.13229589E+001   -1.62373558E+001   -1.61047457E+001
    1.00000000E+002    1.00000000E+001    6.03245624E-002    1.01778462E-001   -3.72790965E-001    6.27281574E-001   -3.32180925E+001   -1.74158926E+001   -1.73031943E+001
    1.05000000E+002    1.00000000E+001    1.16347059E-001    6.31275091E-002   -3.30961025E-001    5.42680242E-001   -3.22429565E+001   -1.86145121E+001   -1.84301427E+001
    1.10000000E+002    1.00000000E+001    1.72291546E-001    2.80458160E-002   -2.82964064E-001    4.70098346E-001   -2.98398648E+001   -1.98921773E+001   -1.94734686E+001
    1.15000000E+002    1.00000000E+001    2.22139212E-001   -6.12727294E-003   -2.25662307E-001    4.08012479E-001   -2.77429164E+001   -2.13061753E+001   -2.04171745E+001
    1.20000000E+002    1.00000000E+001    2.57899512E-001   -4.10842323E-002   -1.53097007E-001    3.57900921E-001   -2.63408756E+001   -2.28736872E+001   -2.12597941E+001
    1.25000000E+002    1.00000000E+001    2.69848112E-001   -7.68817929E-002   -5.59701898E-002    3.23662155E-001   -2.57173869E+001   -2.43489180E+001   -2.19691732E+001
    1.30000000E+002    1.00000000E+001    2.47935545E-001   -1.11634634E-001    7.80027404E-002    3.10086967E-001   -2.59902628E+001   -2.45825854E+001   -2.22193383E+001
    1.35000000E+002    1.00000000E+001    1.84732211E-001   -1.41792965E-001    2.62170421E-001    3.20090292E-001   -2.73362290E+001   -2.23439115E+001   -2.11487540E+001
    1.40000000E+002    1.00000000E+001    7.94567447E-002   -1.63032255E-001    5.07247579E-001    3.51235639E-001   -2.95077036E+001   -1.88732764E+001   -1.85133442E+001
    1.45000000E+002    1.00000000E+001   -5.85590158E-002   -1.71553871E-001    8.16508947E-001    3.93185320E-001   -2.95120631E+001   -1.55338033E+001   -1.53634260E+001
    1.50000000E+002    1.00000000E+001   -2.09435168E-001   -1.65419132E-001    1.18149339E+000    4.28322742E-001   -2.61523031E+001   -1.26938384E+001   -1.25022698E+001
    1.55000000E+002    1.00000000E+001   -3.47244368E-001   -1.45485458E-001    1.58026351E+000    4.37006463E-001   -2.31636566E+001   -1.03840962E+001   -1.01609331E+001
    1.60000000E+002    1.00000000E+001   -4.48950740E-001   -1.15607983E-001    1.97960545E+000    4.06444894E-001   -2.13559158E+001   -8.56782921E+000   -8.34509279E+000
    1.65000000E+002    1.00000000E+001   -5.04000104E-001   -8.19878799E-002    2.34085081E+000    3.39110664E-001   -2.05166787E+001   -7.20105019E+000   -7.00322008E+000
    1.70000000E+002    1.00000000E+001   -5.18929184E-001   -5.18181163E-002    2.62719359E+000    2.55217615E-001   -2.03334722E+001   -6.24808995E+000   -6.08178532E+000
    1.75000000E+002    1.00000000E+001   -5.13131034E-001   -3.16035541E-002    2.80977089E+000    1.85973088E-001   -2.04577155E+001   -5.68632155E+000   -5.54392301E+000
    1.80000000E+002    1.00000000E+001   -5.07107723E-001   -2.56321676E-002    2.87092619E+000    1.59639252E-001   -2.05656379E+001   -5.50487586E+000   -5.37151663E+000
    0.00000000E+000    1.50000000E+001    5.69406617E+000   -3.10043656E+000    2.12284219E+001   -1.15482757E+001    1.55739652E+000    1.29854682E+001    1.32873223E+001
    5.00000000E+000    1.50000000E+001    5.62753417E+000   -2.92083277E+000    2.08262874E+001   -1.09019474E+001    1.36358032E+000    1.27452803E+001    1.30502635E+001
    1.00000000E+001    1.50000000E+001    5.41925952E+000   -2.41009013E+000    1.96544863E+001   -9.09781128E+000    7.83852701E-001    1.20336434E+001    1.23476999E+001
    1.50000000E+001    1.50000000E+001    5.05579627E+000   -1.66549251E+000    1.78088175E+001   -6.51171135E+000   -1.55500798E-001    1.08789459E+001    1.12083765E+001
    2.00000000E+001    1.50000000E+001    4.53486267E+000   -8.20432769E-001    1.54492429E+001   -3.63947884E+000   -1.40756952E+000    9.33398718E+000    9.68549479E+000
    2.50000000E+001    1.50000000E+001    3.88049048E+000   -1.04167346E-002    1.27885701E+001   -9.57839239E-001   -2.90096022E+000    7.48201043E+000    7.86248416E+000
    3.00000000E+001    1.50000000E+001    3.14544013E+000    6.57766926E-001    1.00642150E+001    1.18698476E+000   -4.53921310E+000    5.43686871E+000    5.85297540E+000
    3.50000000E+001    1.50000000E+001    2.39940066E+000    1.12456916E+000    7.49853346E+000    2.63096022E+000   -6.21425218E+000    3.32500655E+000    3.78289820E+000
    4.00000000E+001    1.50000000E+001    1.70996829E+000    1.38014023E+000    5.26143166E+000    3.38137071E+000   -7.84035103E+000    1.24485717E+000    1.75038157E+000
    4.50000000E+001    1.50000000E+001    1.12612692E+000    1.45326028E+000    3.44854044E+000    3.56389762E+000   -9.38939340E+000   -7.70468041E-001   -2.11189939E-001
    5.00000000E+001    1.50000000E+001    6.70646193E-001    1.39347576E+000    2.08039632E+000    3.35671578E+000   -1.08919456E+001   -2.74870596E+000   -2.12910506E+000
    5.50000000E+001    1.50000000E+001    3.42092554E-001    1.25375252E+000    1.11880507E+000    2.93521886E+000   -1.24026263E+001   -4.73676944E+000   -4.05058954E+000
    6.00000000E+001    1.50000000E+001    1.22908002E-001    1.07853268E+000    4.91243491E-001    2.43872744E+000   -1.39660210E+001   -6.76272146E+000   -6.00578731E+000
    6.50000000E+001    1.50000000E+001   -1.11298405E-002    8.98601008E-001    1.14255949E-001    1.95907687E+000   -1.56067197E+001   -8.82294749E+000   -7.99612848E+000
    7.00000000E+001    1.50000000E+001   -8.34866277E-002    7.31441776E-001   -8.96435193E-002    1.54449289E+000   -1.73389147E+001   -1.08884001E+001   -1.00019455E+001
    7.50000000E+001    1.50000000E+001   -1.12833395E-001    5.84587590E-001   -1.82964429E-001    1.21083569E+000   -1.91828798E+001   -1.29189724E+001   -1.19974555E+001
    8.00000000E+001    1.50000000E+001   -1.12076673E-001    4.59623201E-001   -2.10790201E-001    9.54106313E-001   -2.11798385E+001   -1.48798211E+001   -1.39651847E+001
    8.50000000E+001    1.50000000E+001   -8.93377936E-002    3.55359487E-001   -2.02527418E-001    7.60820797E-001   -2.33992056E+001   -1.67557483E+001   -1.59042776E+001
    9.00000000E+001    1.50000000E+001   -4.96902779E-002    2.69636518E-001   -1.75641550E-001    6.15096062E-001   -2.59181066E+001   -1.85594407E+001   -1.78269866E+001
    9.50000000E+001    1.50000000E+001    3.19386538E-003    1.99915540E-001   -1.39767102E-001    5.02644903E-001   -2.86606845E+001   -2.03300543E+001   -1.97349074E+001
    1.00000000E+002    1.50000000E+001    6.58644143E-002    1.43181694E-001   -1.00182743E-001    4.12485527E-001   -3.07273621E+001   -2.21216366E+001   -2.15607614E+001
    1.05000000E+002    1.50000000E+001    1.34339502E-001    9.57413771E-002   -6.00952213E-002    3.37308020E-001   -3.03308778E+001   -2.39824819E+001   -2.30769915E+001
    1.10000000E+002    1.50000000E+001    2.03502371E-001    5.33485710E-002   -2.15029361E-002    2.73301072E-001   -2.82186800E+001   -2.59190959E+001   -2.39081301E+001
    1.15000000E+002    1.50000000E+001    2.66397221E-001    1.18296739E-002    1.53100699E-002    2.19922304E-001   -2.61595747E+001   -2.78123418E+001   -2.38975053E+001
    1.20000000E+002    1.50000000E+001    3.13483902E-001   -3.19099719E-002    5.32902391E-002    1.79660428E-001   -2.47096512E+001   -2.92234610E+001   -2.33944688E+001
    1.25000000E+002    1.50000000E+001    3.32412800E-001   -7.88354597E-002    1.00409680E-001    1.57405481E-001   -2.40075205E+001   -2.92556259E+001   -2.28725373E+001
    1.30000000E+002    1.50000000E+001    3.09288299E-001   -1.27114005E-001    1.70640327E-001    1.58825845E-001   -2.41936370E+001   -2.73272263E+001   -2.24734332E+001
    1.35000000E+002    1.50000000E+001    2.32252358E-001   -1.72186192E-001    2.82859440E-001    1.87406823E-001   -2.54572201E+001   -2.40668095E+001   -2.16963077E+001
    1.40000000E+002    1.50000000E+001    9.71625659E-002   -2.07729390E-001    4.56837715E-001    2.40666384E-001   -2.74695218E+001   -2.04197803E+001   -1.96379173E+001
    1.45000000E+002    1.50000000E+001   -8.66996118E-002   -2.27383383E-001    7.06604913E-001    3.07269103E-001   -2.69540381E+001   -1.69430183E+001   -1.65300921E+001
    1.50000000E+002    1.50000000E+001   -2.94556594E-001   -2.26822050E-001    1.03310231E+000    3.67511293E-001   -2.32732718E+001   -1.38783610E+001   -1.34058071E+001
    1.55000000E+002    1.50000000E+001   -4.91081622E-001   -2.05550943E-001    1.41922727E+000    3.98910890E-001   -2.01545363E+001   -1.13074553E+001   -1.07751173E+001
    1.60000000E+002    1.50000000E+001   -6.42504286E-001   -1.67781775E-001    1.83007504E+000    3.85978234E-001   -1.82347075E+001   -9.24033489E+000   -8.72473589E+000
    1.65000000E+002    1.50000000E+001   -7.30883449E-001   -1.21947066E-001    2.21905478E+000    3.29764944E-001   -1.72825124E+001   -7.66049865E+000   -7.21081730E+000
    1.70000000E+002    1.50000000E+001   -7.62091940E-001   -7.88468839E-002    2.53769462E+000    2.51033076E-001   -1.69923359E+001   -6.54764546E+000   -6.17231517E+000
    1.75000000E+002    1.50000000E+001   -7.61044725E-001   -4.89161657E-002    2.74534095E+000    1.83153861E-001   -1.70326154E+001   -5.88751142E+000   -5.56606937E+000
    1.80000000E+002    1.50000000E+001   -7.55395730E-001   -3.94481070E-002    2.81580410E+000    1.56797786E-001   -1.71034059E+001   -5.67322940E+000   -5.37151663E+000
    0.00000000E+000    2.00000000E+001    7.52257741E+000   -4.09513701E+000    2.06513708E+001   -1.12341102E+001    3.97582890E+000    1.27460477E+001    1.32873223E+001
    5.00000000E+000    2.00000000E+001    7.43036789E+000   -3.85725512E+000    2.02495688E+001   -1.06051858E+001    3.77776130E+000    1.25022637E+001    1.30489202E+001
    1.00000000E+001    2.00000000E+001    7.14369287E+000   -3.18293730E+000    1.90789391E+001   -8.85279012E+000    3.18619491E+000    1.17792094E+001    1.23416265E+001
    1.50000000E+001    2.00000000E+001    6.64695463E+000   -2.20223249E+000    1.72371865E+001   -6.34792563E+000    2.22605741E+000    1.06029425E+001    1.11921933E+001
    2.00000000E+001    2.00000000E+001    5.94092759E+000   -1.09348968E+000    1.48886186E+001   -3.57823610E+000    9.43055186E-001    9.02223662E+000    9.65040926E+000
    2.50000000E+001    2.00000000E+001    5.06219032E+000   -3.77152298E-002    1.22525377E+001   -1.00953448E+000   -5.91713511E-001    7.11518056E+000    7.79538705E+000
    3.00000000E+001    2.00000000E+001    4.08486025E+000    8.23306193E-001    9.57278969E+000    1.02408876E+000   -2.28224710E+000    4.99146712E+000    5.73721505E+000
    3.50000000E+001    2.00000000E+001    3.10334403E+000    1.41240264E+000    7.07496143E+000    2.36981717E+000   -4.02456071E+000    2.77757506E+000    3.60121619E+000
    4.00000000E+001    2.00000000E+001    2.20631850E+000    1.72026194E+000    4.92684557E+000    3.04316591E+000   -5.74269157E+000    5.76215903E-001    1.48727124E+000
    4.50000000E+001    2.00000000E+001    1.45528386E+000    1.78975244E+000    3.21676838E+000    3.17380217E+000   -7.41873839E+000   -1.57803493E+000   -5.72354420E-001
    5.00000000E+001    2.00000000E+001    8.75859669E-001    1.69076040E+000    1.95506620E+000    2.93956693E+000   -9.08468443E+000   -3.72238037E+000   -2.61339605E+000
    5.50000000E+001    2.00000000E+001    4.61960911E-001    1.49599457E+000    1.09357669E+000    2.51217829E+000   -1.07845686E+001   -5.92408889E+000   -4.69684689E+000
    6.00000000E+001    2.00000000E+001    1.87484198E-001    1.26472348E+000    5.52538412E-001    2.02546745E+000   -1.25444076E+001   -8.23648833E+000   -6.86656249E+000
    6.50000000E+001    2.00000000E+001    1.90705222E-002    1.03631398E+000    2.45051258E-001    1.56547237E+000   -1.43674263E+001   -1.06806825E+001   -9.13375455E+000
    7.00000000E+001    2.00000000E+001   -7.44011799E-002    8.31484784E-001    9.36464009E-002    1.17539872E+000   -1.62470038E+001   -1.32475394E+001   -1.14830120E+001
    7.50000000E+001    2.00000000E+001   -1.17019761E-001    6.57562556E-001    3.81268913E-002    8.67395346E-001   -1.81845756E+001   -1.59059993E+001   -1.38872355E+001
    8.00000000E+001    2.00000000E+001   -1.25037329E-001    5.14379393E-001    3.66586135E-002    6.35119976E-001   -2.02037250E+001   -1.86071640E+001   -1.63221877E+001
    8.50000000E+001    2.00000000E+001   -1.08429127E-001    3.98763138E-001    6.29030933E-002    4.63885432E-001   -2.23546357E+001   -2.12713787E+001   -1.87690200E+001
    9.00000000E+001    2.00000000E+001   -7.32233021E-002    3.06950227E-001    1.01563692E-001    3.37415920E-001   -2.46969987E+001   -2.37387430E+001   -2.11811948E+001
    9.50000000E+001    2.00000000E+001   -2.35256563E-002    2.35226859E-001    1.43924043E-001    2.41538906E-001   -2.72057612E+001   -2.56994210E+001   -2.33773071E+001
    1.00000000E+002    2.00000000E+001    3.71827175E-002    1.79575589E-001    1.84287722E-001    1.65676901E-001   -2.94114622E+001   -2.67962764E+001   -2.48996256E+001
    1.05000000E+002    2.00000000E+001    1.05329808E-001    1.35157790E-001    2.17805786E-001    1.03088337E-001   -3.00008681E+001   -2.70394626E+001   -2.52621906E+001